
FAST Summary File

Predictions were generated on 19-Feb-2019 at 09:56:21 using OpenFAST, compiled as a DLL S-Function for Simulink as a 64-bit application using single precision at commit 108121b2-dirty
  compiled with
    NWTC Subroutine Library
    ElastoDyn
    BeamDyn [not called]
    InflowWind
    AeroDyn14 [not called]
    AeroDyn
    ServoDyn
    HydroDyn
    SubDyn [not called]
    ExtPtfm_MCKF [not called]
    MAP++
    FEAMooring [not called]
    MoorDyn [not called]
    OrcaFlexInterface [not called]
    IceFloe [not called]
    IceDyn [not called]


Modeling a floating offshore turbine
Description from the FAST input file: 
  FAST Certification Test #24: NREL 5.0 MW Baseline Wind Turbine with OC3 Hywind Configuration, for use in offshore analysis

Interpolation order for input/output time histories: 1 (linear)
Number of correction iterations:  0
Number of rows in Jacobian matrix used for coupling ElastoDyn to HydroDyn:     12


   Requested Time Steps  
  -------------------------------------------------
  Component          Time Step (s)    Subcycles (-)
  -----------------  ---------------  -------------
  FAST (glue code)    1.250E-02
  InflowWind          1.250E-02              1
  ElastoDyn           1.250E-02              1
  AeroDyn             1.250E-02              1
  ServoDyn            1.250E-02              1
  HydroDyn            1.250E-02              1
  MAP++               1.250E-02              1
  FAST output files   1.250E-02              1


   Requested Channels in FAST Output File(s)  
  --------------------------------------------
  Number  Name        Units       Generated by
  ------  ----------  ----------  ------------
       1  Time        (s)         OpenFAST
       2  Wind1VelX   (m/s)       InflowWind
       3  Wind1VelY   (m/s)       InflowWind
       4  Wind1VelZ   (m/s)       InflowWind
       5  BldPitch1   (deg)       ElastoDyn
       6  BldPitch2   (deg)       ElastoDyn
       7  BldPitch3   (deg)       ElastoDyn
       8  Azimuth     (deg)       ElastoDyn
       9  RotSpeed    (rpm)       ElastoDyn
      10  GenSpeed    (rpm)       ElastoDyn
      11  NacYaw      (deg)       ElastoDyn
      12  OoPDefl1    (m)         ElastoDyn
      13  IPDefl1     (m)         ElastoDyn
      14  TwstDefl1   (deg)       ElastoDyn
      15  OoPDefl2    (m)         ElastoDyn
      16  IPDefl2     (m)         ElastoDyn
      17  TwstDefl2   (deg)       ElastoDyn
      18  OoPDefl3    (m)         ElastoDyn
      19  IPDefl3     (m)         ElastoDyn
      20  TwstDefl3   (deg)       ElastoDyn
      21  TwrClrnc1   (m)         ElastoDyn
      22  TwrClrnc2   (m)         ElastoDyn
      23  TwrClrnc3   (m)         ElastoDyn
      24  NcIMUTAxs   (m/s^2)     ElastoDyn
      25  NcIMUTAys   (m/s^2)     ElastoDyn
      26  NcIMUTAzs   (m/s^2)     ElastoDyn
      27  TTDspFA     (m)         ElastoDyn
      28  TTDspSS     (m)         ElastoDyn
      29  TTDspTwst   (deg)       ElastoDyn
      30  PtfmSurge   (m)         ElastoDyn
      31  PtfmSway    (m)         ElastoDyn
      32  PtfmHeave   (m)         ElastoDyn
      33  PtfmRoll    (deg)       ElastoDyn
      34  PtfmPitch   (deg)       ElastoDyn
      35  PtfmYaw     (deg)       ElastoDyn
      36  PtfmRVxt    (deg/s)     ElastoDyn
      37  PtfmRVyt    (deg/s)     ElastoDyn
      38  PtfmRVzt    (deg/s)     ElastoDyn
      39  PtfmTAxt    (m/s^2)     ElastoDyn
      40  PtfmTAyt    (m/s^2)     ElastoDyn
      41  PtfmTAzt    (m/s^2)     ElastoDyn
      42  RootFxc1    (kN)        ElastoDyn
      43  RootFyc1    (kN)        ElastoDyn
      44  RootFzc1    (kN)        ElastoDyn
      45  RootMxc1    (kN-m)      ElastoDyn
      46  RootMyc1    (kN-m)      ElastoDyn
      47  RootMzc1    (kN-m)      ElastoDyn
      48  RootFxc2    (kN)        ElastoDyn
      49  RootFyc2    (kN)        ElastoDyn
      50  RootFzc2    (kN)        ElastoDyn
      51  RootMxc2    (kN-m)      ElastoDyn
      52  RootMyc2    (kN-m)      ElastoDyn
      53  RootMzc2    (kN-m)      ElastoDyn
      54  RootFxc3    (kN)        ElastoDyn
      55  RootFyc3    (kN)        ElastoDyn
      56  RootFzc3    (kN)        ElastoDyn
      57  RootMxc3    (kN-m)      ElastoDyn
      58  RootMyc3    (kN-m)      ElastoDyn
      59  RootMzc3    (kN-m)      ElastoDyn
      60  Spn1MLxb1   (kN-m)      ElastoDyn
      61  Spn1MLyb1   (kN-m)      ElastoDyn
      62  Spn1MLzb1   (kN-m)      ElastoDyn
      63  Spn1MLxb2   (kN-m)      ElastoDyn
      64  Spn1MLyb2   (kN-m)      ElastoDyn
      65  Spn1MLzb2   (kN-m)      ElastoDyn
      66  Spn1MLxb3   (kN-m)      ElastoDyn
      67  Spn1MLyb3   (kN-m)      ElastoDyn
      68  Spn1MLzb3   (kN-m)      ElastoDyn
      69  LSSTipMya   (kN-m)      ElastoDyn
      70  LSSTipMza   (kN-m)      ElastoDyn
      71  RotThrust   (kN)        ElastoDyn
      72  LSSGagFya   (kN)        ElastoDyn
      73  LSSGagFza   (kN)        ElastoDyn
      74  RotTorq     (kN-m)      ElastoDyn
      75  LSSGagMya   (kN-m)      ElastoDyn
      76  LSSGagMza   (kN-m)      ElastoDyn
      77  RotPwr      (kW)        ElastoDyn
      78  HSShftTq    (kN-m)      ElastoDyn
      79  YawBrFxp    (kN)        ElastoDyn
      80  YawBrFyp    (kN)        ElastoDyn
      81  YawBrFzp    (kN)        ElastoDyn
      82  YawBrMxp    (kN-m)      ElastoDyn
      83  YawBrMyp    (kN-m)      ElastoDyn
      84  YawBrMzp    (kN-m)      ElastoDyn
      85  YawBrTAxp   (m/s^2)     ElastoDyn
      86  YawBrTAyp   (m/s^2)     ElastoDyn
      87  TwrBsFxt    (kN)        ElastoDyn
      88  TwrBsFyt    (kN)        ElastoDyn
      89  TwrBsFzt    (kN)        ElastoDyn
      90  TwrBsMxt    (kN-m)      ElastoDyn
      91  TwrBsMyt    (kN-m)      ElastoDyn
      92  TwrBsMzt    (kN-m)      ElastoDyn
      93  RootMyb1    (kN-m)      ElastoDyn
      94  NcIMUTVxs   (m/s)       ElastoDyn
      95  RtTSR       (-)         AeroDyn
      96  RtAeroCp    (-)         AeroDyn
      97  RtAeroCt    (-)         AeroDyn
      98  B1N3Clrnc   INVALID     AeroDyn
      99  GenPwr      (kW)        ServoDyn
     100  GenTq       (kN-m)      ServoDyn
     101  BlPitchC1   (deg)       ServoDyn
     102  BlPitchC2   (deg)       ServoDyn
     103  BlPitchC3   (deg)       ServoDyn
     104  Wave1Elev   (m)         HydroDyn
     105  T[1]        [N]         MAP++
     106  T_a[1]      [N]         MAP++
     107  T[2]        [N]         MAP++
     108  T_a[2]      [N]         MAP++
     109  T[3]        [N]         MAP++
     110  T_a[3]      [N]         MAP++
